LAMMPS data file. CGCMM style. atom_style full generated by VMD/TopoTools v1.7 on Thu Nov 14 11:52:41 EST 2019
 6106 atoms
 6060 bonds
 6014 angles
 0 dihedrals
 0 impropers
 4 atom types
 1 bond types
 1 angle types
 0 dihedral types
 0 improper types
 -13.895156 12.180539  xlo xhi
 -12.584726 13.988191  ylo yhi
 -17.197082 10.047461  zlo zhi

# Pair Coeffs
#
# 1  1
# 2  2
# 3  3
# 4  4

# Bond Coeffs
#
# 1  1

# Angle Coeffs
#
# 1  1

 Masses

 1 1.000000 # 1
 2 1.000000 # 2
 3 1.000000 # 3
 4 1.000000 # 4

 Atoms # full

1 1 1 0.000000 6.811205 -6.631100 -5.700647 # 1 
2 1 1 0.000000 6.343846 -6.270072 -5.008638 # 1 
3 1 1 0.000000 5.446881 -6.553527 -5.158117 # 1 
4 1 1 0.000000 4.930264 -7.312331 -4.701669 # 1 
5 1 1 0.000000 5.698529 -6.996451 -4.151052 # 1 
6 1 1 0.000000 5.749193 -6.921104 -3.156427 # 1 
7 1 1 0.000000 5.786731 -7.693982 -2.584938 # 1 
8 1 1 0.000000 5.923144 -8.587249 -2.702706 # 1 
9 1 1 0.000000 5.190987 -7.965232 -3.054586 # 1 
10 1 1 0.000000 4.482563 -7.410275 -2.868974 # 1 
11 1 1 0.000000 4.310589 -6.459270 -3.169092 # 1 
12 1 1 0.000000 4.142396 -7.408632 -3.360263 # 1 
13 1 1 0.000000 4.370162 -6.729966 -3.927643 # 1 
14 1 1 0.000000 5.107691 -6.170590 -4.088283 # 1 
15 1 1 0.000000 4.374285 -5.836408 -4.569254 # 1 
16 1 1 0.000000 3.945161 -5.017965 -4.895955 # 1 
17 1 1 0.000000 3.520561 -5.849553 -5.086463 # 1 
18 1 1 0.000000 3.765934 -4.891395 -5.108349 # 1 
19 1 1 0.000000 3.162278 -5.344045 -5.721796 # 1 
20 1 1 0.000000 3.418372 -6.012154 -6.263440 # 1 
21 1 1 0.000000 3.814727 -6.685707 -6.802285 # 1 
22 1 1 0.000000 3.639866 -5.721029 -6.788765 # 1 
23 1 1 0.000000 3.871737 -6.496760 -7.255016 # 1 
24 1 1 0.000000 3.982947 -5.790830 -7.901248 # 1 
25 1 1 0.000000 3.545390 -6.598127 -8.263349 # 1 
26 1 1 0.000000 4.435216 -6.789050 -8.537939 # 1 
27 1 1 0.000000 4.275815 -6.255064 -9.351616 # 1 
28 1 1 0.000000 4.670563 -5.566805 -8.796913 # 1 
29 1 1 0.000000 5.252284 -5.441089 -9.614608 # 1 
30 1 1 0.000000 5.246121 -5.468758 -8.693033 # 1 
31 1 1 0.000000 5.883103 -4.733550 -8.847178 # 1 
32 1 1 0.000000 6.352882 -5.599802 -8.704825 # 1 
33 1 1 0.000000 5.801892 -6.392569 -8.978037 # 1 
34 1 1 0.000000 5.493979 -7.182325 -9.506088 # 1 
35 1 1 0.000000 6.206059 -7.725430 -9.742644 # 1 
36 1 1 0.000000 5.898247 -6.883287 -10.243890 # 1 
37 1 1 0.000000 6.438094 -7.658611 -10.071253 # 1 
38 1 1 0.000000 6.347898 -8.302674 -10.838023 # 1 
39 1 1 0.000000 5.820670 -9.120268 -10.765510 # 1 
40 1 1 0.000000 5.667518 -9.172286 -11.667155 # 1 
41 1 1 0.000000 5.358592 -8.268264 -11.801183 # 1 
42 1 1 0.000000 5.296422 -7.403344 -12.184726 # 1 
43 1 1 0.000000 5.518434 -6.681137 -12.769437 # 1 
44 1 1 0.000000 4.679120 -7.113260 -12.660837 # 1 
45 1 1 0.000000 4.024958 -7.117862 -13.301880 # 1 
46 1 1 0.000000 4.076070 -6.379247 -13.975924 # 1 
47 1 1 0.000000 3.444532 -5.779356 -13.687944 # 1 
48 1 1 0.000000 2.735883 -6.401098 -14.006118 # 1 
49 1 2 0.000000 2.411893 -6.989276 -13.294821 # 2 
50 1 2 0.000000 2.038666 -7.638452 -13.840549 # 2 
51 1 2 0.000000 1.074300 -7.856802 -14.093667 # 2 
52 1 1 0.000000 1.774768 -8.128700 -13.471384 # 1 
53 1 1 0.000000 1.228714 -7.823292 -12.691182 # 1 
54 1 1 0.000000 1.794633 -8.023105 -11.952441 # 1 
55 1 1 0.000000 1.778399 -8.148011 -11.029821 # 1 
56 1 1 0.000000 1.724129 -7.648690 -11.835595 # 1 
57 1 2 0.000000 1.254739 -7.902918 -10.980930 # 2 
58 1 2 0.000000 1.524404 -7.263821 -10.247887 # 2 
59 1 2 0.000000 0.872184 -7.386133 -10.921980 # 2 
60 1 1 0.000000 0.837513 -6.468703 -11.159501 # 1 
61 1 2 0.000000 0.391984 -7.213665 -11.591334 # 2 
62 1 2 0.000000 0.386064 -6.286440 -11.286740 # 2 
63 1 2 0.000000 0.123506 -6.089083 -10.443073 # 2 
64 1 2 0.000000 -0.239834 -6.851227 -10.841330 # 2 
65 1 2 0.000000 -0.289596 -5.921795 -10.598717 # 2 
66 1 2 0.000000 -0.859246 -6.638868 -10.272853 # 2 
67 1 2 0.000000 -1.725205 -6.960248 -10.492746 # 2 
68 1 2 0.000000 -1.723096 -7.543916 -11.238964 # 2 
69 1 2 0.000000 -2.560365 -7.233547 -10.869376 # 2 
70 1 2 0.000000 -2.299770 -8.186037 -10.559285 # 2 
71 1 2 0.000000 -2.686402 -7.339681 -10.060174 # 2 
72 1 2 0.000000 -2.864998 -7.088949 -9.167492 # 2 
73 1 2 0.000000 -3.798046 -7.340455 -9.170795 # 2 
74 1 2 0.000000 -4.761777 -7.388193 -9.408435 # 2 
75 1 2 0.000000 -3.983639 -7.886768 -9.733428 # 2 
76 1 2 0.000000 -3.900963 -7.929299 -10.727698 # 2 
77 1 2 0.000000 -4.286333 -7.577074 -11.527579 # 2 
78 1 2 0.000000 -4.484521 -8.434324 -11.877530 # 2 
79 1 2 0.000000 -4.276160 -7.541831 -11.872945 # 2 
80 1 2 0.000000 -4.164846 -7.772655 -12.792566 # 2 
81 1 2 0.000000 -3.476484 -8.372310 -12.875480 # 2 
82 1 2 0.000000 -3.274952 -8.603621 -11.971926 # 2 
83 1 2 0.000000 -2.843784 -9.257570 -11.413162 # 2 
84 1 2 0.000000 -3.435020 -9.731463 -10.861615 # 2 
85 1 2 0.000000 -2.572033 -9.849439 -11.324593 # 2 
86 1 2 0.000000 -1.815905 -10.366162 -11.521183 # 2 
87 1 2 0.000000 -1.077802 -10.844586 -11.186008 # 2 
88 1 2 0.000000 -0.309266 -10.517698 -11.638338 # 2 
89 1 2 0.000000 -0.251717 -10.271930 -10.705319 # 2 
90 1 2 0.000000 -0.211112 -10.333062 -11.603965 # 2 
91 1 2 0.000000 -0.326499 -9.580361 -11.012427 # 2 
92 1 2 0.000000 -0.293642 -8.891041 -11.679286 # 2 
93 1 2 0.000000 -1.187551 -8.732134 -12.066667 # 2 
94 1 1 0.000000 -0.476257 -8.111713 -12.158530 # 1 
95 1 2 0.000000 -1.200103 -7.499459 -12.304201 # 2 
96 1 2 0.000000 -0.497453 -7.776448 -12.831496 # 2 
97 1 2 0.000000 -1.323841 -8.014795 -13.218347 # 2 
98 1 2 0.000000 -2.221352 -8.478325 -13.131248 # 2 
99 1 2 0.000000 -2.550514 -7.961714 -12.329425 # 2 
100 1 2 0.000000 -2.340824 -7.357462 -13.074131 # 2 
101 1 2 0.000000 -2.895302 -7.100530 -12.395270 # 2 
102 1 2 0.000000 -3.635747 -6.481452 -12.182961 # 2 
103 1 2 0.000000 -4.152594 -5.584912 -12.209379 # 2 
104 1 2 0.000000 -3.455825 -6.051126 -11.726002 # 2 
105 1 2 0.000000 -3.677958 -5.359942 -12.341861 # 2 
106 1 2 0.000000 -3.398324 -5.754950 -13.145011 # 2 
107 1 2 0.000000 -3.846303 -6.613681 -13.389272 # 2 
108 1 2 0.000000 -4.757196 -6.638508 -13.509117 # 2 
109 1 2 0.000000 -4.291494 -6.927145 -14.377489 # 2 
110 1 1 0.000000 -3.932544 -6.376649 -15.163722 # 1 
111 1 1 0.000000 -2.927895 -6.312517 -14.935399 # 1 
112 1 1 0.000000 -2.011890 -6.604518 -14.967921 # 1 
113 1 1 0.000000 -1.148243 -6.943194 -15.219202 # 1 
114 1 1 0.000000 -0.206678 -6.824168 -15.133096 # 1 
115 1 1 0.000000 0.142438 -5.945741 -15.324276 # 1 
116 1 1 0.000000 0.348042 -6.848212 -15.143735 # 1 
117 1 1 0.000000 0.927375 -6.296032 -14.582765 # 1 
118 1 1 0.000000 0.703629 -5.472522 -14.063729 # 1 
119 1 2 0.000000 0.208476 -4.720284 -14.361753 # 2 
120 1 2 0.000000 0.688824 -4.097003 -14.909590 # 2 
121 1 3 0.000000 0.768298 -4.347672 -14.001155 # 3 
122 1 3 0.000000 0.727723 -3.352805 -13.990757 # 3 
123 1 3 0.000000 0.900475 -3.967791 -13.237013 # 3 
124 1 3 0.000000 1.279808 -3.200080 -12.827744 # 3 
125 1 3 0.000000 1.886071 -3.895180 -12.574978 # 3 
126 1 3 0.000000 2.417897 -3.682592 -11.788965 # 3 
127 1 3 0.000000 3.214793 -4.290940 -11.692250 # 3 
128 1 3 0.000000 3.596040 -4.699660 -12.426984 # 3 
129 1 3 0.000000 3.061305 -5.472879 -12.692425 # 3 
130 1 4 0.000000 3.881506 -5.776327 -12.283377 # 4 
131 1 4 0.000000 3.806355 -5.904637 -11.331154 # 4 
132 1 4 0.000000 2.844965 -5.767056 -11.098013 # 4 
133 1 4 0.000000 1.926075 -6.127167 -11.239364 # 4 
134 1 4 0.000000 2.475699 -5.511695 -10.755503 # 4 
135 1 4 0.000000 1.553889 -5.646269 -11.144265 # 4 
136 1 3 0.000000 2.013986 -5.443053 -12.012177 # 3 
137 1 3 0.000000 1.066498 -5.525006 -11.701672 # 3 
138 1 3 0.000000 0.438905 -4.922203 -11.294360 # 3 
139 1 3 0.000000 1.047011 -4.420586 -11.859468 # 3 
140 1 3 0.000000 0.542611 -3.908116 -11.274627 # 3 
141 1 3 0.000000 0.350384 -3.283821 -11.994953 # 3 
142 1 3 0.000000 1.267517 -3.380521 -11.691754 # 3 
143 1 3 0.000000 1.626181 -2.662424 -11.078160 # 3 
144 1 3 0.000000 1.512130 -3.644823 -11.058814 # 3 
145 1 1 0.000000 1.341858 -2.656854 -10.850331 # 1 
146 1 1 0.000000 1.707051 -2.471067 -9.991859 # 1 
147 1 1 0.000000 2.232368 -2.721699 -9.170049 # 1 
148 1 1 0.000000 2.525713 -2.881211 -10.044013 # 1 
149 1 2 0.000000 2.582594 -1.928613 -9.848489 # 2 
150 1 1 0.000000 2.725971 -2.686157 -10.363563 # 1 
151 1 1 0.000000 2.547040 -1.733970 -10.363511 # 1 
152 1 1 0.000000 2.837637 -1.951243 -11.320848 # 1 
153 1 1 0.000000 3.527606 -1.499044 -11.799192 # 1 
154 1 1 0.000000 2.953541 -2.293048 -11.828924 # 1 
155 1 1 0.000000 3.652806 -1.603359 -12.030236 # 1 
156 1 1 0.000000 3.421377 -1.051663 -12.753152 # 1 
157 1 1 0.000000 2.928031 -0.917601 -13.569963 # 1 
158 1 1 0.000000 3.504456 -0.522517 -12.971987 # 1 
159 1 2 0.000000 3.445004 0.422844 -13.266369 # 2 
160 1 2 0.000000 3.898675 1.022284 -13.823535 # 2 
161 1 1 0.000000 4.540145 1.595112 -13.372336 # 1 
162 1 1 0.000000 4.630899 0.675511 -13.818935 # 1 
163 1 2 0.000000 4.410530 0.234084 -14.648031 # 2 
164 1 2 0.000000 4.666896 -0.560143 -14.080169 # 2 
165 1 2 0.000000 3.877737 -0.004056 -14.152775 # 2 
166 1 2 0.000000 3.862219 -0.924468 -14.510965 # 2 
167 1 2 0.000000 3.965786 -1.656330 -15.110772 # 2 
168 1 1 0.000000 4.150013 -1.787775 -14.187312 # 1 
169 1 1 0.000000 4.795135 -2.040095 -14.921232 # 1 
170 1 2 0.000000 4.706427 -1.990720 -13.942508 # 2 
171 1 2 0.000000 5.487623 -1.408292 -13.935996 # 2 
172 1 2 0.000000 4.877359 -2.063576 -13.552946 # 2 
173 1 2 0.000000 4.455965 -2.956398 -13.614177 # 2 
174 1 1 0.000000 4.690235 -2.355440 -12.771546 # 1 
175 1 2 0.000000 3.793218 -2.714087 -12.786525 # 2 
176 1 2 0.000000 3.158653 -2.476373 -13.439210 # 2 
177 1 2 0.000000 2.474547 -2.932414 -12.945567 # 2 
178 1 2 0.000000 2.556698 -3.645580 -13.551756 # 2 
179 1 2 0.000000 2.608921 -4.625450 -13.288054 # 2 
180 1 2 0.000000 2.695592 -3.889214 -14.026089 # 2 
181 1 1 0.000000 3.319905 -4.273980 -14.578302 # 1 
182 1 1 0.000000 2.848298 -3.640702 -15.080173 # 1 
183 1 1 0.000000 3.401945 -3.646372 -15.816431 # 1 
184 1 1 0.000000 3.467111 -2.761414 -15.495987 # 1 
185 1 2 0.000000 3.369110 -3.528681 -16.039381 # 2 
186 1 2 0.000000 2.387906 -3.541230 -16.122974 # 2 
187 1 2 0.000000 1.615679 -3.157049 -15.715729 # 2 
188 1 2 0.000000 1.446965 -2.429628 -16.299877 # 2 
189 1 2 0.000000 0.692050 -2.860977 -16.695284 # 2 
190 1 2 0.000000 0.859355 -1.979049 -17.107555 # 2 
191 1 2 0.000000 0.615128 -1.072469 -17.161514 # 2 
192 1 2 0.000000 -0.091592 -0.937096 -16.486853 # 2 
193 1 2 0.000000 0.190809 -0.071773 -16.229864 # 2 
194 1 2 0.000000 -0.054330 0.879532 -16.534103 # 2 
195 1 2 0.000000 -0.099731 0.897937 -15.603619 # 2 
196 1 2 0.000000 0.716225 1.539039 -15.334806 # 2 
197 1 2 0.000000 -0.156408 1.229937 -15.489367 # 2 
198 1 2 0.000000 -0.134626 2.096653 -15.970054 # 2 
199 1 2 0.000000 -0.578772 1.837812 -16.767233 # 2 
200 1 2 0.000000 -1.475179 2.276432 -16.780848 # 2 
201 1 1 0.000000 -2.032466 2.943115 -16.471022 # 1 
202 1 1 0.000000 -1.705931 2.097044 -16.844742 # 1 
203 1 1 0.000000 -1.671030 1.307251 -16.299223 # 1 
204 1 1 0.000000 -2.129416 1.005646 -17.142450 # 1 
205 1 1 0.000000 -2.318231 0.528869 -16.313782 # 1 
206 1 1 0.000000 -2.633486 0.563930 -15.393562 # 1 
207 1 1 0.000000 -2.035533 0.989624 -14.813753 # 1 
208 1 1 0.000000 -1.738503 1.851825 -15.112463 # 1 
209 1 1 0.000000 -1.752658 2.820489 -14.992013 # 1 
210 1 2 0.000000 -2.459305 2.800775 -14.406575 # 2 
211 1 2 0.000000 -2.267490 3.457636 -15.104391 # 2 
212 1 1 0.000000 -3.050663 3.493569 -14.598892 # 1 
213 1 1 0.000000 -3.927525 3.103894 -14.444260 # 1 
214 1 2 0.000000 -3.835395 2.347282 -15.088293 # 2 
215 1 2 0.000000 -3.898856 2.913517 -14.300499 # 2 
216 1 2 0.000000 -4.060509 2.078671 -14.793794 # 2 
217 1 2 0.000000 -4.890294 1.550799 -14.855334 # 2 
218 1 2 0.000000 -5.284865 0.800017 -15.272487 # 2 
219 1 2 0.000000 -6.105273 0.481583 -15.683297 # 2 
220 1 2 0.000000 -5.315134 0.961443 -15.880404 # 2 
221 1 2 0.000000 -4.642993 1.631259 -15.830583 # 2 
222 1 2 0.000000 -5.364246 2.174978 -16.220932 # 2 
223 1 2 0.000000 -6.279627 1.814610 -16.072388 # 2 
224 1 2 0.000000 -6.048349 2.446158 -15.412061 # 2 
225 1 1 0.000000 -5.486287 3.175461 -15.748980 # 1 
226 1 2 0.000000 -4.778024 2.987614 -15.147061 # 2 
227 1 1 0.000000 -5.373897 2.653310 -14.472666 # 1 
228 1 1 0.000000 -5.907166 3.395961 -14.750684 # 1 
229 1 1 0.000000 -5.845212 2.524641 -14.337985 # 1 
230 1 1 0.000000 -6.177267 1.613108 -14.230922 # 1 
231 1 1 0.000000 -6.602665 2.343383 -13.885771 # 1 
232 1 1 0.000000 -7.339031 1.703107 -13.705894 # 1 
233 1 2 0.000000 -6.553180 2.018776 -13.404324 # 2 
234 1 1 0.000000 -6.403655 1.559109 -12.595258 # 1 
235 1 1 0.000000 -5.625701 1.486224 -13.122108 # 1 
236 1 1 0.000000 -6.419094 1.363761 -12.599444 # 1 
237 1 1 0.000000 -5.904706 0.517566 -12.816372 # 1 
238 1 2 0.000000 -5.613267 -0.421463 -12.909623 # 2 
239 1 2 0.000000 -5.342065 0.341353 -13.374099 # 2 
240 1 2 0.000000 -5.599851 0.585325 -14.238202 # 2 
241 1 2 0.000000 -6.478452 0.414722 -13.878638 # 2 
242 1 2 0.000000 -7.277122 0.048190 -14.323271 # 2 
243 1 2 0.000000 -6.527503 -0.376601 -13.946693 # 2 
244 1 2 0.000000 -6.814056 -0.564191 -13.060036 # 2 
245 1 2 0.000000 -6.144405 -1.211760 -13.529937 # 2 
246 1 2 0.000000 -5.188853 -1.281674 -13.593658 # 2 
247 1 1 0.000000 -4.735850 -1.243834 -12.724010 # 1 
248 1 2 0.000000 -4.463514 -0.612061 -12.157611 # 2 
249 1 2 0.000000 -5.240143 -0.361357 -11.594038 # 2 
250 1 2 0.000000 -6.087578 -0.612542 -11.940593 # 2 
251 2 1 0.000000 9.985016 -0.529122 -13.280694 # 1 
252 2 1 0.000000 10.085603 -1.427714 -12.793270 # 1 
253 2 1 0.000000 9.226403 -1.619194 -12.295507 # 1 
254 2 1 0.000000 8.472014 -1.124735 -12.746693 # 1 
255 2 1 0.000000 8.051613 -0.543652 -13.460892 # 1 
256 2 1 0.000000 7.257211 -0.972822 -13.931611 # 1 
257 2 1 0.000000 7.206270 -0.145805 -14.556875 # 1 
258 2 1 0.000000 7.032822 -0.537257 -15.440036 # 1 
259 2 1 0.000000 7.097376 0.408593 -15.677963 # 1 
260 2 1 0.000000 6.482062 1.026192 -15.383365 # 1 
261 2 1 0.000000 5.955237 0.307893 -14.928001 # 1 
262 2 1 0.000000 6.573155 1.058565 -15.008251 # 1 
263 2 1 0.000000 5.940061 0.512208 -14.486025 # 1 
264 2 1 0.000000 5.820013 1.081612 -13.774388 # 1 
265 2 1 0.000000 6.552640 1.365864 -13.251318 # 1 
266 2 1 0.000000 7.170236 0.990138 -12.680412 # 1 
267 2 1 0.000000 6.234713 1.249317 -12.484150 # 1 
268 2 1 0.000000 6.025314 2.025648 -11.907437 # 1 
269 2 1 0.000000 5.230464 1.963349 -11.370263 # 1 
270 2 1 0.000000 5.475833 1.452181 -10.654910 # 1 
271 2 1 0.000000 5.378853 2.016317 -9.889153 # 1 
272 2 1 0.000000 4.913882 2.725509 -9.384615 # 1 
273 2 1 0.000000 5.005710 2.426265 -10.328911 # 1 
274 2 1 0.000000 5.143093 3.242822 -9.751303 # 1 
275 2 1 0.000000 5.960822 3.368868 -10.322325 # 1 
276 2 1 0.000000 5.817840 2.868669 -11.148645 # 1 
277 2 1 0.000000 6.208072 2.981297 -10.257868 # 1 
278 2 1 0.000000 6.338545 2.120247 -9.831903 # 1 
279 2 1 0.000000 7.094384 1.594742 -9.895188 # 1 
280 2 1 0.000000 7.388072 1.157915 -10.699323 # 1 
281 2 1 0.000000 6.785869 0.793291 -11.381748 # 1 
282 2 1 0.000000 7.276084 0.095366 -11.759397 # 1 
283 2 1 0.000000 6.600463 0.576044 -11.341956 # 1 
284 2 1 0.000000 5.593687 0.493152 -11.244558 # 1 
285 2 1 0.000000 4.703535 0.422327 -10.928629 # 1 
286 2 1 0.000000 4.111481 0.008501 -10.344868 # 1 
287 2 1 0.000000 4.717822 -0.160868 -11.143854 # 1 
288 2 1 0.000000 3.842306 -0.090785 -10.700510 # 1 
289 2 1 0.000000 3.538136 -0.142024 -11.618015 # 1 
290 2 1 0.000000 3.060576 0.252025 -10.782441 # 1 
291 2 1 0.000000 2.309359 0.876439 -10.711014 # 1 
292 2 1 0.000000 1.905784 1.738125 -10.626315 # 1 
293 2 1 0.000000 1.886659 0.802163 -10.815676 # 1 
294 2 1 0.000000 1.714276 0.144999 -11.464782 # 1 
295 2 1 0.000000 0.885110 0.638536 -11.515097 # 1 
296 2 1 0.000000 1.146434 -0.030005 -12.090129 # 1 
297 2 1 0.000000 0.781021 -0.072401 -13.051862 # 1 
298 2 1 0.000000 0.433459 0.171353 -13.938359 # 1 
299 2 2 0.000000 0.557807 0.106383 -12.972806 # 2 
300 2 2 0.000000 -0.449033 0.045978 -12.906203 # 2 
301 2 2 0.000000 0.183512 0.522680 -12.450284 # 2 
302 2 1 0.000000 0.878841 1.152891 -12.362149 # 1 
303 2 1 0.000000 0.280152 1.277834 -13.162076 # 1 
304 2 1 0.000000 1.254871 1.110179 -13.328029 # 1 
305 2 1 0.000000 0.889111 2.039141 -13.502263 # 1 
306 2 1 0.000000 0.905711 2.987134 -13.450561 # 1 
307 2 2 0.000000 0.732122 2.099663 -13.824044 # 2 
308 2 2 0.000000 0.018321 1.585523 -14.263538 # 2 
309 2 2 0.000000 0.294508 2.319469 -14.824332 # 2 
310 2 1 0.000000 -0.313251 1.703391 -14.362825 # 1 
311 2 2 0.000000 -0.828197 2.545385 -14.403812 # 2 
312 2 2 0.000000 -0.957468 3.554447 -14.417041 # 2 
313 2 2 0.000000 -0.322822 4.060497 -13.805119 # 2 
314 2 2 0.000000 -0.272862 4.968547 -14.122444 # 2 
315 2 2 0.000000 0.232092 5.415298 -14.894360 # 2 
316 2 2 0.000000 -0.535293 5.016444 -15.367070 # 2 
317 2 2 0.000000 -0.214017 5.675145 -14.747828 # 2 
318 2 2 0.000000 -0.150747 6.471803 -15.335427 # 2 
319 2 2 0.000000 -0.689497 7.142735 -15.770822 # 2 
320 2 2 0.000000 0.187649 7.261249 -15.273571 # 2 
321 2 2 0.000000 -0.465966 7.934170 -15.214315 # 2 
322 2 2 0.000000 -1.322560 7.554901 -15.112243 # 2 
323 2 2 0.000000 -1.401421 8.507481 -14.737365 # 2 
324 2 2 0.000000 -1.527090 7.551284 -14.425971 # 2 
325 2 2 0.000000 -2.415678 7.912194 -14.544028 # 2 
326 2 2 0.000000 -2.012380 8.422104 -13.828542 # 2 
327 2 2 0.000000 -2.775425 7.852918 -13.788037 # 2 
328 2 2 0.000000 -3.725780 7.484004 -13.609779 # 2 
329 2 2 0.000000 -3.390582 6.616075 -13.864188 # 2 
330 2 2 0.000000 -4.099335 6.315786 -13.369638 # 2 
331 2 2 0.000000 -3.699975 6.599694 -14.204716 # 2 
332 2 2 0.000000 -3.862518 6.032570 -14.911797 # 2 
333 2 2 0.000000 -4.013400 5.199555 -14.433196 # 2 
334 2 2 0.000000 -3.594873 5.432352 -13.609030 # 2 
335 2 2 0.000000 -3.187892 4.961211 -14.379272 # 2 
336 2 2 0.000000 -2.294851 4.768438 -14.035753 # 2 
337 2 2 0.000000 -1.386365 4.844643 -13.797684 # 2 
338 2 2 0.000000 -2.202408 5.297188 -13.714576 # 2 
339 2 2 0.000000 -1.328235 5.346691 -13.296111 # 2 
340 2 2 0.000000 -1.883162 6.165280 -13.472911 # 2 
341 2 2 0.000000 -1.472368 6.166543 -14.351027 # 2 
342 2 2 0.000000 -1.988655 6.210878 -15.108100 # 2 
343 2 2 0.000000 -1.464675 5.794749 -14.396032 # 2 
344 2 1 0.000000 -2.432864 5.788351 -14.675756 # 1 
345 2 2 0.000000 -2.938971 5.728979 -15.490582 # 2 
346 2 2 0.000000 -3.199799 5.381083 -16.402937 # 2 
347 2 2 0.000000 -2.337213 5.141756 -16.061256 # 2 
348 2 2 0.000000 -1.375743 4.794443 -16.095650 # 2 
349 2 2 0.000000 -1.291621 4.047175 -15.543567 # 2 
350 2 2 0.000000 -0.540711 3.875264 -16.047733 # 2 
351 2 2 0.000000 0.347643 3.876492 -16.474730 # 2 
352 2 2 0.000000 0.796103 3.588871 -15.676135 # 2 
353 2 2 0.000000 1.019933 3.220460 -16.507629 # 2 
354 2 2 0.000000 1.339569 2.462767 -16.029278 # 2 
355 2 2 0.000000 1.366013 2.464624 -15.087699 # 2 
356 2 2 0.000000 2.293807 2.307631 -15.068996 # 2 
357 2 2 0.000000 2.111594 3.125991 -15.413754 # 2 
358 2 2 0.000000 2.600611 2.687830 -16.071121 # 2 
359 2 2 0.000000 3.203779 3.413693 -15.871614 # 2 
360 2 1 0.000000 4.104696 3.404431 -15.586514 # 1 
361 2 1 0.000000 3.910190 2.599897 -15.018668 # 1 
362 2 1 0.000000 4.388386 1.903850 -14.655231 # 1 
363 2 1 0.000000 3.673136 2.170813 -15.268676 # 1 
364 2 1 0.000000 3.479792 1.531767 -15.969533 # 1 
365 2 1 0.000000 3.634423 0.590775 -16.034014 # 1 
366 2 1 0.000000 3.357700 -0.196888 -15.507859 # 1 
367 2 1 0.000000 3.214070 -1.132899 -15.452995 # 1 
368 2 1 0.000000 2.377912 -0.868662 -15.791975 # 1 
369 2 2 0.000000 2.240122 -0.043302 -16.267883 # 2 
370 2 2 0.000000 1.613450 -0.019435 -15.566251 # 2 
371 2 3 0.000000 1.972101 0.474419 -14.780682 # 3 
372 2 3 0.000000 2.322295 0.750708 -15.578160 # 3 
373 2 3 0.000000 1.927940 0.608140 -14.666825 # 3 
374 2 3 0.000000 1.003562 0.710002 -14.689652 # 3 
375 2 3 0.000000 1.596022 1.392461 -14.354971 # 3 
376 2 3 0.000000 2.290697 1.360182 -13.597289 # 3 
377 2 3 0.000000 2.058866 2.150537 -14.085617 # 3 
378 2 3 0.000000 2.727926 1.671385 -13.691351 # 3 
379 2 3 0.000000 2.208739 2.483557 -13.853367 # 3 
380 2 4 0.000000 2.315619 3.298683 -14.330661 # 4 
381 2 4 0.000000 1.390281 3.169287 -14.382655 # 4 
382 2 4 0.000000 0.825315 4.011023 -14.549500 # 4 
383 2 4 0.000000 1.753241 4.217061 -14.344162 # 4 
384 2 4 0.000000 1.600148 4.965664 -13.852680 # 4 
385 2 4 0.000000 1.792891 4.180078 -13.355519 # 4 
386 2 3 0.000000 1.377040 5.032932 -13.497046 # 3 
387 2 3 0.000000 1.228575 4.392819 -12.778796 # 3 
388 2 3 0.000000 1.551459 5.361497 -12.889380 # 3 
389 2 3 0.000000 1.808906 6.232658 -13.178641 # 3 
390 2 3 0.000000 1.102080 5.879501 -12.628405 # 3 
391 2 3 0.000000 0.167274 5.920390 -12.299556 # 3 
392 2 3 0.000000 -0.078510 5.004197 -12.404513 # 3 
393 2 3 0.000000 -0.848093 5.324729 -11.870931 # 3 
394 2 3 0.000000 -1.683318 4.799349 -11.817180 # 3 
395 2 1 0.000000 -1.191496 5.465240 -12.207332 # 1 
396 2 1 0.000000 -1.866055 5.782391 -11.611374 # 1 
397 2 1 0.000000 -1.455061 5.716209 -10.761958 # 1 
398 2 1 0.000000 -2.320788 5.295978 -10.952548 # 1 
399 2 2 0.000000 -2.914558 5.170657 -11.696297 # 2 
400 2 1 0.000000 -3.745217 5.072495 -12.207049 # 1 
401 2 1 0.000000 -4.598612 5.391262 -12.582312 # 1 
402 2 1 0.000000 -4.542820 4.789183 -13.340291 # 1 
403 2 1 0.000000 -4.978151 5.594763 -13.026044 # 1 
404 2 1 0.000000 -5.661291 5.637142 -12.385069 # 1 
405 2 1 0.000000 -6.324079 5.463910 -13.079089 # 1 
406 2 1 0.000000 -5.840204 4.593842 -13.199696 # 1 
407 2 1 0.000000 -6.262274 3.766242 -13.434834 # 1 
408 2 1 0.000000 -5.980397 4.668083 -13.903590 # 1 
409 2 2 0.000000 -6.596179 3.965258 -14.031508 # 2 
410 2 2 0.000000 -7.620878 3.884511 -14.089200 # 2 
411 2 1 0.000000 -7.171125 4.670607 -13.677272 # 1 
412 2 1 0.000000 -7.533549 4.357340 -12.877372 # 1 
413 2 2 0.000000 -7.032316 3.807838 -12.280625 # 2 
414 2 2 0.000000 -6.377727 3.306572 -11.802063 # 2 
415 2 2 0.000000 -6.360211 2.283661 -11.870033 # 2 
416 2 2 0.000000 -7.265053 1.931426 -11.927340 # 2 
417 2 2 0.000000 -7.545931 2.020482 -11.010399 # 2 
418 2 1 0.000000 -7.463685 2.126965 -11.977875 # 1 
419 2 1 0.000000 -7.711005 2.317494 -11.043173 # 1 
420 2 2 0.000000 -8.421112 2.361938 -11.693591 # 2 
421 2 2 0.000000 -9.224633 2.415444 -12.131804 # 2 
422 2 2 0.000000 -9.188767 1.801427 -11.381436 # 2 
423 2 2 0.000000 -9.774950 2.443762 -11.803448 # 2 
424 2 1 0.000000 -9.627849 1.557762 -11.501463 # 1 
425 2 2 0.000000 -10.191571 1.236050 -12.189788 # 2 
426 2 2 0.000000 -9.485613 1.634472 -12.722413 # 2 
427 2 2 0.000000 -9.053358 2.307226 -13.291911 # 2 
428 2 2 0.000000 -9.007617 3.268564 -12.967615 # 2 
429 2 2 0.000000 -9.766431 3.946586 -13.004010 # 2 
430 2 2 0.000000 -10.429259 3.324183 -12.771640 # 2 
431 2 1 0.000000 -11.178743 3.894183 -12.562778 # 1 
432 2 1 0.000000 -10.936634 3.341712 -13.299860 # 1 
433 2 1 0.000000 -11.057358 4.063282 -12.706532 # 1 
434 2 1 0.000000 -10.256016 4.114295 -12.096333 # 1 
435 2 2 0.000000 -9.787914 4.713566 -11.533179 # 2 
436 2 2 0.000000 -9.776209 5.614225 -11.247521 # 2 
437 2 2 0.000000 -10.133351 5.286613 -10.408943 # 2 
438 2 2 0.000000 -10.852040 5.496557 -11.027166 # 2 
439 2 2 0.000000 -10.546184 6.004941 -10.241930 # 2 
440 2 2 0.000000 -10.097578 6.714916 -9.675049 # 2 
441 2 2 0.000000 -9.168524 6.631079 -9.407890 # 2 
442 2 2 0.000000 -8.990381 7.527844 -9.742043 # 2 
443 2 2 0.000000 -8.949903 7.865419 -8.796264 # 2 
444 2 2 0.000000 -8.980821 8.669473 -9.364250 # 2 
445 2 2 0.000000 -8.312854 8.467610 -8.644361 # 2 
446 2 2 0.000000 -8.483697 8.423876 -7.683844 # 2 
447 2 2 0.000000 -7.634682 8.054827 -7.761829 # 2 
448 2 2 0.000000 -6.783225 8.044921 -7.463836 # 2 
449 2 2 0.000000 -6.914633 7.889277 -6.557357 # 2 
450 2 2 0.000000 -7.352279 8.735283 -6.675554 # 2 
451 2 1 0.000000 -7.931592 9.489485 -6.528862 # 1 
452 2 1 0.000000 -8.998899 9.326626 -6.646286 # 1 
453 2 1 0.000000 -9.215869 8.364441 -6.716269 # 1 
454 2 1 0.000000 -9.540112 7.908720 -5.955115 # 1 
455 2 1 0.000000 -8.829522 7.290809 -5.674840 # 1 
456 2 1 0.000000 -8.057878 6.990374 -6.155280 # 1 
457 2 1 0.000000 -8.833049 6.600848 -5.779774 # 1 
458 2 1 0.000000 -9.040259 5.954936 -6.472751 # 1 
459 2 1 0.000000 -8.578093 6.617597 -6.941200 # 1 
460 2 2 0.000000 -8.037107 7.081423 -7.579579 # 2 
461 2 2 0.000000 -8.869607 6.690779 -8.001892 # 2 
462 2 1 0.000000 -8.343059 6.070673 -8.466102 # 1 
463 2 1 0.000000 -9.379490 6.002327 -8.288838 # 1 
464 2 2 0.000000 -9.160664 5.201751 -7.794078 # 2 
465 2 2 0.000000 -9.795029 4.456758 -7.916673 # 2 
466 2 2 0.000000 -8.827994 4.447722 -7.812415 # 2 
467 2 2 0.000000 -9.207161 3.818248 -8.425277 # 2 
468 2 2 0.000000 -9.352902 4.659160 -8.894263 # 2 
469 2 2 0.000000 -9.600013 4.399349 -9.763921 # 2 
470 2 2 0.000000 -8.755011 4.698049 -9.492643 # 2 
471 2 2 0.000000 -9.529922 4.227314 -9.808602 # 2 
472 2 2 0.000000 -9.744965 3.312511 -10.034687 # 2 
473 2 2 0.000000 -9.725542 2.661459 -9.330442 # 2 
474 2 2 0.000000 -10.202587 2.654082 -8.536682 # 2 
475 2 1 0.000000 -11.055336 3.109002 -8.624892 # 1 
476 2 2 0.000000 -10.708032 3.275469 -7.792693 # 2 
477 2 1 0.000000 -10.085479 2.524772 -7.569531 # 1 
478 2 1 0.000000 -10.887292 2.986941 -7.399729 # 1 
479 2 1 0.000000 -10.917291 3.571715 -6.678778 # 1 
480 2 1 0.000000 -10.193634 2.944086 -6.502444 # 1 
481 2 1 0.000000 -10.330406 3.832616 -6.741866 # 1 
482 2 1 0.000000 -9.429837 3.687687 -6.742333 # 1 
483 2 2 0.000000 -8.545597 3.841063 -6.976099 # 2 
484 2 1 0.000000 -9.426479 4.172157 -6.903738 # 1 
485 2 1 0.000000 -9.748878 4.987597 -6.480578 # 1 
486 2 1 0.000000 -10.270153 5.767855 -6.273289 # 1 
487 2 1 0.000000 -10.893547 5.164585 -5.784329 # 1 
488 2 2 0.000000 -10.879071 5.052076 -4.776694 # 2 
489 2 2 0.000000 -10.380924 4.998633 -3.989557 # 2 
490 2 2 0.000000 -10.627772 5.768713 -3.364657 # 2 
491 2 2 0.000000 -11.161602 5.995770 -2.637817 # 2 
492 2 2 0.000000 -11.821574 6.340740 -3.290996 # 2 
493 2 2 0.000000 -12.669306 6.610428 -2.799102 # 2 
494 2 2 0.000000 -12.977878 5.747598 -3.031224 # 2 
495 2 2 0.000000 -12.138687 5.430655 -2.653868 # 2 
496 2 2 0.000000 -11.966329 4.539733 -3.041392 # 2 
497 2 1 0.000000 -12.650976 4.750020 -3.729696 # 1 
498 2 2 0.000000 -12.648333 5.374006 -4.547487 # 2 
499 2 2 0.000000 -11.851692 4.812288 -4.680626 # 2 
500 2 2 0.000000 -12.224080 5.655747 -4.473383 # 2 
501 3 2 0.000000 1.598002 7.896061 -7.823319 # 2 
502 3 2 0.000000 2.123762 8.674725 -8.122366 # 2 
503 3 2 0.000000 2.789464 7.973180 -7.935041 # 2 
504 3 2 0.000000 3.125774 8.466218 -8.728991 # 2 
505 3 2 0.000000 3.353526 9.182870 -9.397062 # 2 
506 3 2 0.000000 3.290486 8.416414 -8.839258 # 2 
507 3 2 0.000000 4.203041 8.109809 -8.600069 # 2 
508 3 1 0.000000 4.211086 9.065408 -8.540524 # 1 
509 3 1 0.000000 3.851021 9.713139 -7.915549 # 1 
510 3 1 0.000000 3.672928 10.661345 -8.197970 # 1 
511 3 1 0.000000 3.653224 10.887981 -9.145005 # 1 
512 3 1 0.000000 3.347977 10.076478 -8.797610 # 1 
513 3 1 0.000000 4.126964 10.033301 -9.302858 # 1 
514 3 2 0.000000 3.725289 10.261816 -10.158991 # 2 
515 3 2 0.000000 3.985032 10.008347 -11.053488 # 2 
516 3 2 0.000000 3.236550 9.791540 -10.495717 # 2 
517 3 2 0.000000 3.133672 8.836571 -10.767062 # 2 
518 3 2 0.000000 3.817341 8.967667 -11.411459 # 2 
519 3 2 0.000000 4.213368 8.281874 -10.923719 # 2 
520 3 2 0.000000 4.568523 8.565016 -10.120806 # 2 
521 3 1 0.000000 4.795173 7.792635 -10.756458 # 1 
522 3 2 0.000000 5.699962 7.497471 -10.860711 # 2 
523 3 2 0.000000 4.798587 7.305304 -11.043524 # 2 
524 3 2 0.000000 4.478972 6.553311 -10.502058 # 2 
525 3 1 0.000000 3.865792 7.291244 -10.311849 # 1 
526 3 1 0.000000 3.715564 6.432083 -10.867189 # 1 
527 3 1 0.000000 3.140152 5.781710 -10.401381 # 1 
528 3 1 0.000000 2.390467 5.348217 -10.835966 # 1 
529 3 1 0.000000 2.302533 5.550799 -9.908998 # 1 
530 3 1 0.000000 1.488877 5.371326 -9.463422 # 1 
531 3 1 0.000000 2.415036 5.474871 -9.278561 # 1 
532 3 1 0.000000 1.687103 5.725459 -8.768062 # 1 
533 3 1 0.000000 0.730212 5.848699 -8.795513 # 1 
534 3 2 0.000000 -0.022416 5.829164 -9.326534 # 2 
535 3 2 0.000000 -0.098267 6.295652 -10.160735 # 2 
536 3 2 0.000000 0.408693 5.528084 -10.447715 # 2 
537 3 2 0.000000 0.946580 6.178188 -10.860588 # 2 
538 3 1 0.000000 1.785052 6.418806 -10.438682 # 1 
539 3 1 0.000000 1.353320 7.154163 -10.063509 # 1 
540 3 1 0.000000 0.702281 7.493648 -9.485270 # 1 
541 3 2 0.000000 -0.313285 7.625097 -9.411512 # 2 
542 3 2 0.000000 -0.889553 8.429480 -9.327838 # 2 
543 3 1 0.000000 -0.443503 8.003208 -10.180695 # 1 
544 3 1 0.000000 -1.165429 7.398738 -10.164959 # 1 
545 3 1 0.000000 -1.206974 7.637907 -11.122053 # 1 
546 3 1 0.000000 -0.219270 7.639186 -11.235249 # 1 
547 3 1 0.000000 -1.101526 7.570279 -11.594304 # 1 
548 3 1 0.000000 -0.338960 7.013560 -11.574736 # 1 
549 3 1 0.000000 -0.394111 6.073204 -11.365865 # 1 
550 3 2 0.000000 -0.256667 6.860887 -11.836318 # 2 
551 3 2 0.000000 -0.197360 6.831485 -12.799348 # 2 
552 3 2 0.000000 0.715727 6.904360 -12.657068 # 2 
553 3 2 0.000000 0.369138 7.421450 -13.371653 # 2 
554 3 2 0.000000 0.580187 7.898086 -14.162662 # 2 
555 3 1 0.000000 0.606254 8.895010 -14.199663 # 1 
556 3 1 0.000000 0.527809 9.348375 -13.293618 # 1 
557 3 2 0.000000 -0.024051 9.780824 -12.664822 # 2 
558 3 2 0.000000 0.744407 10.320755 -12.889524 # 2 
559 3 2 0.000000 -0.105245 10.134440 -12.436484 # 2 
560 3 2 0.000000 0.181611 10.314342 -11.501938 # 2 
561 3 2 0.000000 0.289588 9.360135 -11.586493 # 2 
562 3 1 0.000000 0.868310 8.782643 -11.118357 # 1 
563 3 1 0.000000 0.066053 9.049771 -11.685030 # 1 
564 3 1 0.000000 -0.828334 8.907660 -11.432970 # 1 
565 3 1 0.000000 -0.801070 9.452761 -10.639917 # 1 
566 3 1 0.000000 -1.058372 8.687545 -11.174595 # 1 
567 3 2 0.000000 -1.984689 8.866610 -11.374557 # 2 
568 3 2 0.000000 -2.502639 9.221093 -12.085887 # 2 
569 3 1 0.000000 -1.663288 9.504776 -12.416258 # 1 
570 3 1 0.000000 -2.515811 9.406209 -12.955501 # 1 
571 3 1 0.000000 -2.652280 10.092217 -13.615292 # 1 